19
3-Phenylpropionitrile.log	Energy: -252969.0746654
C          3.14605        0.00073       -0.30388
C          2.46505        1.20691       -0.13251
C          1.11146        1.20407        0.20529
C          0.41730       -0.00068        0.37724
C          1.11246       -1.20469        0.20436
C          2.46607       -1.20613       -0.13346
C         -1.05991       -0.00139        0.70611
C         -1.93098        0.00086       -0.57726
C         -3.36647        0.00044       -0.28424
N         -4.49934       -0.00014       -0.03034
H          4.20053        0.00128       -0.56328
H          2.98837        2.15051       -0.25662
H          0.58881        2.14752        0.34481
H          0.59059       -2.14869        0.34308
H          2.99018       -2.14920       -0.25830
H         -1.31702        0.87706        1.30648
H         -1.31686       -0.88202        1.30334
H         -1.69769       -0.87712       -1.19005
H         -1.69775        0.88097       -1.18697
