15
4-Aminobenzonitrile.log	Energy: -238367.0600508
C          0.00372        0.38743        1.21091
C          0.00372       -0.99839        1.21151
C          0.00363       -1.71815        0.00000
C          0.00372       -0.99839       -1.21151
C          0.00372        0.38743       -1.21091
C          0.00297        1.10301       -0.00000
C         -0.00121        2.53271       -0.00000
N         -0.00557        3.69729       -0.00000
N          0.05400       -3.10000        0.00000
H          0.00182        0.92909        2.15090
H          0.00760       -1.53822        2.15443
H          0.00760       -1.53822       -2.15443
H          0.00182        0.92909       -2.15090
H         -0.23976       -3.56838        0.84433
H         -0.23976       -3.56838       -0.84433
