21
4-Dimethylamino-benzonitrile.log	Energy: -287699.1738509
C          3.02992       -1.25685       -0.00049
N          2.29940       -0.00000        0.00032
C          3.02989        1.25687        0.00016
C          0.92222       -0.00001        0.00016
C          0.18655       -1.21199        0.00027
C         -1.19870       -1.20732        0.00020
C         -1.91870       -0.00000        0.00001
C         -1.19869        1.20731       -0.00015
C          0.18656        1.21198       -0.00009
C         -3.34770        0.00001       -0.00006
N         -4.51251        0.00000       -0.00012
H          2.80365       -1.86113       -0.88907
H          4.10001       -1.04930       -0.00077
H          2.80428       -1.86189        0.88774
H          2.80463        1.86110       -0.88873
H          2.80320        1.86193        0.88808
H          4.09999        1.04935        0.00116
H          0.70116       -2.16419        0.00045
H         -1.73725       -2.14935        0.00032
H         -1.73724        2.14935       -0.00035
H          0.70118        2.16417       -0.00030
