14
4-Hydroxybenzonitrile.log	Energy: -250824.4635696
C          0.37737       -1.21572       -0.00697
C         -1.01318       -1.21293       -0.01411
C         -1.70916        0.00001       -0.01211
C         -1.01317        1.21294       -0.01409
C          0.37737        1.21572       -0.00696
C          1.08255       -0.00000       -0.00051
C          2.51595       -0.00000        0.00900
N          3.67949       -0.00001        0.01911
O         -3.08904        0.00003       -0.07543
H          0.92442       -2.15234       -0.00822
H         -1.57311       -2.14205       -0.02965
H         -1.57311        2.14206       -0.02965
H          0.92443        2.15234       -0.00818
H         -3.45310       -0.00028        0.81989
