18
4-Nitrophenylacetonitrile.log	Energy: -356620.0698959
C         -0.65547       -1.20909       -0.41236
C          0.71331       -1.21843       -0.16026
C          1.37634        0.00001       -0.03881
C          0.71340        1.21852       -0.15988
C         -0.65539        1.20936       -0.41197
C         -1.34943        0.00018       -0.54144
C         -2.84860        0.00027       -0.80951
C         -3.63947       -0.00026        0.42842
N         -4.25843       -0.00031        1.41004
N          2.82659       -0.00008        0.22154
O          3.38706       -1.09052        0.32153
O          3.38720        1.09028        0.32148
H         -1.18716       -2.15102       -0.50907
H          1.26960       -2.14158       -0.05961
H          1.26976        2.14161       -0.05898
H         -1.18701        2.15136       -0.50834
H         -3.13226        0.88043       -1.39682
H         -3.13225       -0.87947       -1.39744
