7
Acrylonitrile.log	Energy: -107201.3603298
C         -1.60913       -0.35793        0.00001
C         -0.58677        0.50528        0.00005
C          0.78255        0.08987       -0.00009
N          1.90285       -0.22424        0.00004
H         -1.45098       -1.43106        0.00004
H         -2.63349       -0.00163       -0.00012
H         -0.75533        1.57906        0.00002
