17
Cinnamonitrile.log	Energy: -252199.7514048
C         -3.15209        0.18799       -0.00057
C         -2.62019       -1.10158       -0.00069
C         -1.23935       -1.28442        0.00000
C         -0.36204       -0.18473        0.00064
C         -0.91553        1.11037        0.00097
C         -2.29369        1.29229        0.00028
C          1.07734       -0.44359        0.00112
C          2.06984        0.47177       -0.00137
C          3.44440        0.09976       -0.00051
N          4.57418       -0.18456        0.00019
H         -4.22785        0.33503       -0.00105
H         -3.27920       -1.96440       -0.00128
H         -0.82745       -2.29006       -0.00006
H         -0.26653        1.98040        0.00199
H         -2.70303        2.29799        0.00058
H          1.36226       -1.49363        0.00355
H          1.87035        1.53940       -0.00433
