19
Cyclohexancarbonitrile.log	Energy: -205908.3741781
C          0.79309       -2.02978       -0.00000
C          0.13446       -1.46794        1.26855
C          0.13446        0.06737        1.27779
C         -0.53817        0.62677        0.00000
C          0.13446        0.06737       -1.27779
C          0.13446       -1.46794       -1.26855
C         -0.53502        2.09484        0.00000
N         -0.51695        3.25609        0.00000
H          0.74109       -3.12449       -0.00000
H          1.86023       -1.76726       -0.00000
H         -0.90135       -1.83015        1.33207
H          0.64804       -1.83893        2.16263
H         -0.38092        0.45055        2.16453
H          1.16539        0.44064        1.32311
H         -1.59156        0.31078        0.00000
H         -0.38092        0.45055       -2.16453
H          1.16539        0.44064       -1.32311
H          0.64804       -1.83893       -2.16263
H         -0.90135       -1.83015       -1.33207
