14
Isophthalonitrile.log	Energy: -261506.5381803
C         -0.00000       -2.03959       -0.00002
C          1.20857       -1.34731        0.00007
C          1.20984        0.05804       -0.00011
C          0.00000        0.76450       -0.00003
C         -1.20984        0.05804       -0.00000
C         -1.20857       -1.34731       -0.00001
C         -2.45373        0.77369        0.00000
N         -3.46453        1.34840        0.00004
C          2.45374        0.77369       -0.00005
N          3.46452        1.34840        0.00007
H         -0.00000       -3.12440        0.00000
H          2.15201       -1.88198        0.00011
H          0.00000        1.84817       -0.00001
H         -2.15201       -1.88198        0.00001
