9
Propionitrile.log	Energy: -107979.0642680
C          1.55952       -0.44888       -0.00001
C          0.48373        0.65153       -0.00004
C         -0.87908        0.11106        0.00018
N         -1.95252       -0.33085       -0.00008
H          1.47022       -1.08308        0.88540
H          1.47012       -1.08333       -0.88523
H          2.55341        0.00639       -0.00012
H          0.59435        1.29677       -0.87916
H          0.59448        1.29689        0.87892
