15
Valeronitrile.log	Energy: -157322.3867508
C         -1.46853        2.49686        0.00000
C         -1.42839        0.96608        0.00000
C          0.00000        0.41016        0.00000
C          0.02307       -1.13247        0.00000
C          1.38094       -1.68254        0.00000
N          2.46377       -2.10107        0.00000
H         -2.49866        2.86595        0.00000
H         -0.96775        2.90655        0.88401
H         -0.96775        2.90655       -0.88401
H         -1.96651        0.58416        0.87801
H         -1.96651        0.58416       -0.87801
H          0.54425        0.77622       -0.87850
H          0.54425        0.77622        0.87850
H         -0.50513       -1.52039        0.87956
H         -0.50513       -1.52039       -0.87956
